                  Welcome to Q-Chem
     A Quantum Leap Into The Future Of Chemistry


 Q-Chem 5.3 (devel), Q-Chem, Inc., Pleasanton, CA (2020)

 Yihan Shao,  Zhengting Gan,  E. Epifanovsky,  A. T. B. Gilbert,  M. Wormit,  
 J. Kussmann,  A. W. Lange,  A. Behn,  Jia Deng,  Xintian Feng,  D. Ghosh,  
 M. Goldey,  P. R. Horn,  L. D. Jacobson,  I. Kaliman,  T. Kus,  A. Landau,  
 Jie Liu,  E. I. Proynov,  R. M. Richard,  R. P. Steele,  E. J. Sundstrom,  
 H. L. Woodcock III,  P. M. Zimmerman,  D. Zuev,  B. Alam,  B. Albrecht,  
 A. Aldossary,  E. Alguire,  S. A. Baeppler,  D. Barton,  Z. Benda,  
 Y. A. Bernard,  E. J. Berquist,  K. B. Bravaya,  H. Burton,  K. Carter-Fenk,  
 D. Casanova,  Chun-Min Chang,  Yunqing Chen,  A. Chien,  K. D. Closser,  
 M. P. Coons,  S. Coriani,  S. Dasgupta,  A. L. Dempwolff,  M. Diedenhofen,  
 Hainam Do,  R. G. Edgar,  Po-Tung Fang,  S. Faraji,  S. Fatehi,  
 Qingguo Feng,  J. Fosso-Tande,  J. Gayvert,  Qinghui Ge,  A. Ghysels,  
 G. Gidofalvi,  J. Gomes,  J. Gonthier,  S. Gulania,  A. Gunina,  D. Hait,  
 M. W. D. Hanson-Heine,  S. Hammes-Schiffer,  P. H. P. Harbach,  
 A. W. Hauser,  M. F. Herbst,  J. E. Herr,  E. G. Hohenstein,  Z. C. Holden,  
 S. Houck,  Kerwin Hui,  B. C. Huynh,  M. Ivanov,  T.-C. Jagau,  Hyunjun Ji,  
 B. Kaduk,  K. Khistyaev,  Jaehoon Kim,  P. Klunzinger,  K. Koh,  
 D. Kosenkov,  L. Koulias,  T. Kowalczyk,  C. M. Krauter,  A. Kunitsa,  
 Ka Un Lao,  A. Laurent,  K. V. Lawler,  Joonho Lee,  D. Lefrancois,  
 S. Lehtola,  D. S. Levine,  Yi-Pei Li,  You-Sheng Lin,  Fenglai Liu,  
 Kuan-Yu Liu,  E. Livshits,  M. Loipersberger,  A. Luenser,  A. Manjanath,  
 P. Manohar,  E. Mansoor,  S. F. Manzer,  Shan-Ping Mao,  Yuezhi Mao,  
 N. Mardirossian,  A. V. Marenich,  T. Markovich,  L. A. Martinez-Martinez,  
 S. A. Maurer,  N. J. Mayhall,  S. C. McKenzie,  J.-M. Mewes,  P. Morgante,  
 A. F. Morrison,  J. W. Mullinax,  K. Nanda,  T. S. Nguyen-Beck,  
 R. Olivares-Amaya,  K. J. Oosterbaan,  J. A. Parkhill,  S. K. Paul,  
 F. Pavosevic,  Zheng Pei,  T. M. Perrine,  F. Plasser,  P. Pokhilko,  
 S. Prager,  A. Prociuk,  E. Ramos,  B. Rana,  D. R. Rehn,  F. Rob,  
 E. Rossomme,  M. Scheurer,  M. Schneider,  N. Sergueev,  S. M. Sharada,  
 S. Sharma,  W. Skomorowski,  D. W. Small,  T. Stauch,  C. J. Stein,  
 T. Stein,  Yu-Chuan Su,  S. P. Veccham,  Zhen Tao,  A. J. W. Thom,  
 A. Tkatchenko,  T. Tsuchimochi,  N. M. Tubman,  L. Vogt,  M. L. Vidal,  
 O. Vydrov,  M. A. Watson,  J. Wenzel,  M. de Wergifosse,  T. A. Wesolowski,  
 A. White,  J. Witte,  A. Yamada,  Jun Yang,  K. Yao,  S. Yeganeh,  
 S. R. Yost,  Zhi-Qiang You,  A. Zech,  Igor Ying Zhang,  Xing Zhang,  
 Yan Zhao,  Ying Zhu,  B. R. Brooks,  G. K. L. Chan,  C. J. Cramer,  
 M. S. Gordon,  W. J. Hehre,  A. Klamt,  M. W. Schmidt,  C. D. Sherrill,  
 D. G. Truhlar,  A. Aspuru-Guzik,  R. Baer,  A. T. Bell,  N. A. Besley,  
 Jeng-Da Chai,  A. E. DePrince, III,  R. A. DiStasio Jr.,  A. Dreuw,  
 B. D. Dunietz,  T. R. Furlani,  Chao-Ping Hsu,  Yousung Jung,  Jing Kong,  
 D. S. Lambrecht,  WanZhen Liang,  C. Ochsenfeld,  V. A. Rassolov,  
 L. V. Slipchenko,  J. E. Subotnik,  T. Van Voorhis,  J. M. Herbert,  
 A. I. Krylov,  P. M. W. Gill,  M. Head-Gordon

 Contributors to earlier versions of Q-Chem not listed above: 
 R. D. Adamson,  B. Austin,  J. Baker,  G. J. O. Beran,  K. Brandhorst,  
 S. T. Brown,  E. F. C. Byrd,  A. K. Chakraborty,  C.-L. Cheng,  
 Siu Hung Chien,  D. M. Chipman,  D. L. Crittenden,  H. Dachsel,  
 R. J. Doerksen,  A. D. Dutoi,  L. Fusti-Molnar,  W. A. Goddard III,  
 A. Golubeva-Zadorozhnaya,  S. R. Gwaltney,  G. Hawkins,  A. Heyden,  
 S. Hirata,  G. Kedziora,  F. J. Keil,  C. Kelley,  Jihan Kim,  R. A. King,  
 R. Z. Khaliullin,  P. P. Korambath,  W. Kurlancheek,  A. M. Lee,  M. S. Lee,  
 S. V. Levchenko,  Ching Yeh Lin,  D. Liotard,  R. C. Lochan,  I. Lotan,  
 P. E. Maslen,  N. Nair,  D. P. O'Neill,  D. Neuhauser,  E. Neuscamman,  
 C. M. Oana,  R. Olson,  B. Peters,  R. Peverati,  P. A. Pieniazek,  
 Y. M. Rhee,  J. Ritchie,  M. A. Rohrdanz,  E. Rosta,  N. J. Russ,  
 H. F. Schaefer III,  N. E. Schultz,  N. Shenvi,  A. C. Simmonett,  A. Sodt,  
 D. Stuck,  K. S. Thanthiriwatte,  V. Vanovschi,  Tao Wang,  A. Warshel,  
 C. F. Williams,  Q. Wu,  X. Xu,  W. Zhang

 Please cite Q-Chem as follows:
 Y. Shao et al., Mol. Phys. 113, 184-215 (2015)
 DOI: 10.1080/00268976.2014.952696

 Q-Chem 5.3.2 for Intel X86 EM64T Linux

 Parts of Q-Chem use Armadillo 9.800.1 (Horizon Scraper).
 http://arma.sourceforge.net/

 Q-Chem begins on Mon Aug  9 18:17:35 2021  

Host: 
0

     Scratch files written to /home/sanna/qcscratch/qchem92929//
Processing $rem in /opt/qchem-5.4-beta/config/preferences:
Processing $rem in /home/sanna/.qchemrc:

Checking the input file for inconsistencies... 	...done.

--------------------------------------------------------------
User input:
--------------------------------------------------------------
$molecule
0 1
C	0.3759514396	-1.9478120681	2.4394413932
H	0.6360829524	-0.9745166052	1.9526037794
H	0.0488386151	-1.7246337723	3.4859684215
H	-0.4997753104	-2.3651930240	1.9027993523
O	1.4078790783	-2.9193393597	2.3585046540
H	2.1789015250	-2.5481046707	2.8275587996
$end

$rem
   BASIS  =  cc-pVDZ
   JOB_TYPE  =  freq
   METHOD  =  PBE
   vibman_print = 7
   SYM_IGNORE = True
$end
--------------------------------------------------------------
 ----------------------------------------------------------------
             Standard Nuclear Orientation (Angstroms)
    I     Atom           X                Y                Z
 ----------------------------------------------------------------
    1      C       0.3759514396    -1.9478120681     2.4394413932
    2      H       0.6360829524    -0.9745166052     1.9526037794
    3      H       0.0488386151    -1.7246337723     3.4859684215
    4      H      -0.4997753104    -2.3651930240     1.9027993523
    5      O       1.4078790783    -2.9193393597     2.3585046540
    6      H       2.1789015250    -2.5481046707     2.8275587996
 ----------------------------------------------------------------
 Nuclear Repulsion Energy =          39.97082564 hartrees
 There are        9 alpha and        9 beta electrons
 Requested basis set is cc-pVDZ
 There are 24 shells and 48 basis functions

 Total QAlloc Memory Limit   2000 MB
 Mega-Array Size       204 MB
 MEM_STATIC part       192 MB

                       Distance Matrix (Angstroms)
             C (  1)   H (  2)   H (  3)   H (  4)   O (  5)
   H (  2)  1.118921
   H (  3)  1.118942  1.805198
   H (  4)  1.108643  1.796284  1.793800
   O (  5)  1.419609  2.131375  2.132015  2.038110
   H (  6)  1.939488  2.371079  2.376715  2.839709  0.975860

 A cutoff of  1.0D-11 yielded    300 shell pairs
 There are      1220 function pairs (      1329 Cartesian)
 Smallest overlap matrix eigenvalue = 1.73E-02
 Guess from superposition of atomic densities
 Warning:  Energy on first SCF cycle will be non-variational
 SAD guess density has 18.000000 electrons

 -----------------------------------------------------------------------
  General SCF calculation program by
  Eric Jon Sundstrom, Paul Horn, Yuezhi Mao, Dmitri Zuev, Alec White,
  David Stuck, Shaama M.S., Shane Yost, Joonho Lee, David Small,
  Daniel Levine, Susi Lehtola, Hugh Burton, Evgeny Epifanovsky,
  Bang C. Huynh
 -----------------------------------------------------------------------
 Exchange:  PBE      Correlation:  PBE
 Using SG-1 standard quadrature grid
 using 12 threads for integral computing
 -------------------------------------------------------
 OpenMP Integral computing Module                
 Release: version 1.0, May 2013, Q-Chem Inc. Pittsburgh 
 -------------------------------------------------------
 A restricted SCF calculation will be
 performed using DIIS
 SCF converges when DIIS error is below 1.0e-08
 ---------------------------------------
  Cycle       Energy         DIIS error
 ---------------------------------------
    1    -115.6658990230      9.15e-02  
    2    -115.5048572552      1.66e-02  
    3    -115.4180667863      2.55e-02  
    4    -115.5765416568      2.77e-03  
    5    -115.5781822706      1.13e-03  
    6    -115.5784959319      1.32e-04  
    7    -115.5785003979      1.38e-05  
    8    -115.5785004479      1.81e-06  
    9    -115.5785004490      3.99e-07  
   10    -115.5785004491      4.93e-08  
   11    -115.5785004491      7.48e-09  Convergence criterion met
 ---------------------------------------
 SCF time:   CPU 12.83s  wall 1.00s 
 SCF   energy in the final basis set =     -115.5785004491
 Total energy in the final basis set =     -115.5785004491

 --------------------------------------------------------------

                    Orbital Energies (a.u.)
 --------------------------------------------------------------

 Alpha MOs
 -- Occupied --
-18.7537  -9.9336  -0.9202  -0.6043  -0.4451  -0.3745  -0.3646  -0.2775
 -0.2094
 -- Virtual --
  0.0331   0.0704   0.1103   0.1142   0.1619   0.4125   0.4283   0.4469
  0.5253   0.5841   0.5975   0.6029   0.8135   0.8426   0.9150   0.9580
  1.0072   1.1462   1.2819   1.3258   1.3474   1.5312   1.5486   1.5774
  1.5785   1.6668   1.7755   1.9145   1.9875   2.0140   2.0746   2.3000
  2.3044   2.3359   2.8356   2.9132   2.9633   3.0936   3.5621
 --------------------------------------------------------------

          Ground-State Mulliken Net Atomic Charges

     Atom                 Charge (a.u.)
  ----------------------------------------
      1 C                     0.034187
      2 H                     0.018153
      3 H                     0.017948
      4 H                     0.044061
      5 O                    -0.253181
      6 H                     0.138831
  ----------------------------------------
  Sum of atomic charges =     0.000000

 -----------------------------------------------------------------
                    Cartesian Multipole Moments
 -----------------------------------------------------------------
    Charge (ESU x 10^10)
                 0.0000
    Dipole Moment (Debye)
         X       0.2913      Y       1.2533      Z       0.7136
       Tot       1.4713
    Quadrupole Moments (Debye-Ang)
        XX     -10.3511     XY       0.8859     YY     -20.1899
        XZ       2.5996     YZ       1.2234     ZZ      -9.7523
    Octopole Moments (Debye-Ang^2)
       XXX     -21.9297    XXY      25.2687    XYY     -17.7805
       YYY     120.8312    XXZ     -21.2363    XYZ      -2.8704
       YYZ     -44.5835    XZZ       0.3111    YZZ      29.1770
       ZZZ     -83.1518
    Hexadecapole Moments (Debye-Ang^3)
      XXXX     -68.0222   XXXY      61.1908   XXYY     -85.6810
      XYYY     116.8893   YYYY    -570.6517   XXXZ     -44.2127
      XXYZ      51.1056   XYYZ     -30.0838   YYYZ     281.9956
      XXZZ     -60.8279   XYZZ       8.8584   YYZZ    -178.2819
      XZZZ     -38.8876   YZZZ     207.2698   ZZZZ    -441.9301
 -----------------------------------------------------------------
 Calculating MO derivatives via CPSCF
    1     0    21    0.0513307  
    2     0    21    0.0028405  
    3     0    21    0.0000853  
    4    19     2    0.0000011  
    5    21     0    0.0000000  Converged
 Time for AOints: 0.1 s (CPU) 0.0 s (wall)
 ------------------------------------------------------------------------------
                     AOints        : Timing summary (seconds)
 ------------------------------------------------------------------------------
     job step          cpu (% of tot)      sys (% of tot)     wall (% of tot)
 ------------------------------------------------------------------------------
  AOints            0.1349E+00 ( 0.9)   0.0000E+00 ( 0.0)   0.2141E-01 ( 1.6)
 ------------------------------------------------------------------------------
   Grand Totals     0.1510E+02          0.1000E-04          0.1321E+01
 ------------------------------------------------------------------------------
 Polarizability Matrix (a.u.)
            1           2           3
    1 -18.7141727   0.9570396  -0.7949834
    2   0.9570396 -16.8003022  -0.3607543
    3  -0.7949834  -0.3607543 -15.7872337
 Calculating analytic Hessian of the SCF energy

 Direct stationary perturbation theory relativistic correction:

 rels  =       0.037824536909
 relv  =      -0.153412098013
 rel2e =       0.000000000000
 E_rel =      -0.115587561104

 Hessian of the SCF Energy
            1           2           3           4           5           6
    1   0.5124381   0.0466735   0.0235277  -0.0669740  -0.0564358   0.0306534
    2   0.0466735   0.4956571   0.0108544  -0.0597186  -0.2068754   0.0870815
    3   0.0235277   0.0108544   0.5223148   0.0301041   0.0862427  -0.0923966
    4  -0.0669740  -0.0597186   0.0301041   0.0682535   0.0522182  -0.0319671
    5  -0.0564358  -0.2068754   0.0862427   0.0522182   0.2355627  -0.0962566
    6   0.0306534   0.0870815  -0.0923966  -0.0319671  -0.0962566   0.0931173
    7  -0.0598096   0.0072436   0.0513311  -0.0004205  -0.0010379   0.0101644
    8   0.0086060  -0.0506346  -0.0318208  -0.0065549   0.0046142   0.0236191
    9   0.0528937  -0.0344562  -0.2558040   0.0015609  -0.0018144  -0.0130450
   10  -0.1923812  -0.0782098  -0.0946274  -0.0050425  -0.0044175  -0.0042557
   11  -0.0893986  -0.0895043  -0.0562395  -0.0179959  -0.0087250  -0.0127404
   12  -0.1000196  -0.0519244  -0.1069947   0.0113424   0.0061429   0.0065840
   13  -0.1650484   0.0983041   0.0063631   0.0017259   0.0102553  -0.0042412
   14   0.0583697  -0.1510650  -0.0233356   0.0313218  -0.0253197  -0.0024654
   15  -0.0127853  -0.0083028  -0.0656919  -0.0109474   0.0071890   0.0057458
   16  -0.0282249  -0.0142929  -0.0166986   0.0024577  -0.0005824  -0.0003539
   17   0.0321852   0.0024222   0.0142989   0.0007294   0.0007432   0.0007617
   18   0.0057302  -0.0032525  -0.0014276  -0.0000929  -0.0015036  -0.0000054
            7           8           9          10          11          12
    1  -0.0598096   0.0086060   0.0528937  -0.1923812  -0.0893986  -0.1000196
    2   0.0072436  -0.0506346  -0.0344562  -0.0782098  -0.0895043  -0.0519244
    3   0.0513311  -0.0318208  -0.2558040  -0.0946274  -0.0562395  -0.1069947
    4  -0.0004205  -0.0065549   0.0015609  -0.0050425  -0.0179959   0.0113424
    5  -0.0010379   0.0046142  -0.0018144  -0.0044175  -0.0087250   0.0061429
    6   0.0101644   0.0236191  -0.0130450  -0.0042557  -0.0127404   0.0065840
    7   0.0669384  -0.0186421  -0.0642614   0.0069846  -0.0033064  -0.0211313
    8  -0.0186421   0.0571409   0.0422617   0.0021041  -0.0012724  -0.0121207
    9  -0.0642614   0.0422617   0.2730843   0.0037927  -0.0003981  -0.0132115
   10   0.0069846   0.0021041   0.0037927   0.2212660   0.0792497   0.1068933
   11  -0.0033064  -0.0012724  -0.0003981   0.0792497   0.0937574   0.0555519
   12  -0.0211313  -0.0121207  -0.0132115   0.1068933   0.0555519   0.1094541
   13  -0.0151246   0.0163007   0.0059270  -0.0276054   0.0254166   0.0014728
   14   0.0154818  -0.0100418  -0.0049007  -0.0025481   0.0078723   0.0022941
   15   0.0224456  -0.0222632   0.0074813  -0.0121086   0.0129125   0.0028921
   16   0.0014317  -0.0018138   0.0000871  -0.0032216   0.0060346   0.0014426
   17   0.0002610   0.0001937  -0.0006922   0.0038215  -0.0021280   0.0000562
   18   0.0014516   0.0003240   0.0014948   0.0003057   0.0009135   0.0012760
           13          14          15          16          17          18
    1  -0.1650484   0.0583697  -0.0127853  -0.0282249   0.0321852   0.0057302
    2   0.0983041  -0.1510650  -0.0083028  -0.0142929   0.0024222  -0.0032525
    3   0.0063631  -0.0233356  -0.0656919  -0.0166986   0.0142989  -0.0014276
    4   0.0017259   0.0313218  -0.0109474   0.0024577   0.0007294  -0.0000929
    5   0.0102553  -0.0253197   0.0071890  -0.0005824   0.0007432  -0.0015036
    6  -0.0042412  -0.0024654   0.0057458  -0.0003539   0.0007617  -0.0000054
    7  -0.0151246   0.0154818   0.0224456   0.0014317   0.0002610   0.0014516
    8   0.0163007  -0.0100418  -0.0222632  -0.0018138   0.0001937   0.0003240
    9   0.0059270  -0.0049007   0.0074813   0.0000871  -0.0006922   0.0014948
   10  -0.0276054  -0.0025481  -0.0121086  -0.0032216   0.0038215   0.0003057
   11   0.0254166   0.0078723   0.0129125   0.0060346  -0.0021280   0.0009135
   12   0.0014728   0.0022941   0.0028921   0.0014426   0.0000562   0.0012760
   13   0.5036515   0.0062903   0.1761620  -0.2975990  -0.1565670  -0.1856836
   14   0.0062903   0.2820151   0.1175143  -0.1089154  -0.1034608  -0.0891066
   15   0.1761620   0.1175143   0.1653778  -0.1627664  -0.1070497  -0.1158050
   16  -0.2975990  -0.1089154  -0.1627664   0.3251561   0.1195699   0.1782892
   17  -0.1565670  -0.1034608  -0.1070497   0.1195699   0.1022298   0.0926251
   18  -0.1856836  -0.0891066  -0.1158050   0.1782892   0.0926251   0.1144672

 Mass-Weighted Hessian Matrix:


     0.042703    0.003889    0.001961   -0.019258   -0.016228    0.008814
     0.003889    0.041305    0.000905   -0.017172   -0.059487    0.025040
     0.001961    0.000905    0.043526    0.008656    0.024799   -0.026569
    -0.019258   -0.017172    0.008656    0.067723    0.051813   -0.031719
    -0.016228   -0.059487    0.024799    0.051813    0.233733   -0.095509
     0.008814    0.025040   -0.026569   -0.031719   -0.095509    0.092394
    -0.017198    0.002083    0.014760   -0.000417   -0.001030    0.010085
     0.002475   -0.014560   -0.009150   -0.006504    0.004578    0.023436
     0.015210   -0.009908   -0.073557    0.001549   -0.001800   -0.012944
    -0.055320   -0.022489   -0.027210   -0.005003   -0.004383   -0.004223
    -0.025707   -0.025737   -0.016172   -0.017856   -0.008657   -0.012641
    -0.028761   -0.014931   -0.030766    0.011254    0.006095    0.006533
    -0.011913    0.007096    0.000459    0.000430    0.002554   -0.001056
     0.004213   -0.010904   -0.001684    0.007801   -0.006306   -0.000614
    -0.000923   -0.000599   -0.004742   -0.002727    0.001791    0.001431
    -0.008116   -0.004110   -0.004802    0.002439   -0.000578   -0.000351
     0.009255    0.000697    0.004112    0.000724    0.000737    0.000756
     0.001648   -0.000935   -0.000411   -0.000092   -0.001492   -0.000005


    -0.017198    0.002475    0.015210   -0.055320   -0.025707   -0.028761
     0.002083   -0.014560   -0.009908   -0.022489   -0.025737   -0.014931
     0.014760   -0.009150   -0.073557   -0.027210   -0.016172   -0.030766
    -0.000417   -0.006504    0.001549   -0.005003   -0.017856    0.011254
    -0.001030    0.004578   -0.001800   -0.004383   -0.008657    0.006095
     0.010085    0.023436   -0.012944   -0.004223   -0.012641    0.006533
     0.066418   -0.018497   -0.063762    0.006930   -0.003281   -0.020967
    -0.018497    0.056697    0.041933    0.002088   -0.001262   -0.012027
    -0.063762    0.041933    0.270963    0.003763   -0.000395   -0.013109
     0.006930    0.002088    0.003763    0.219547    0.078634    0.106063
    -0.003281   -0.001262   -0.000395    0.078634    0.093029    0.055120
    -0.020967   -0.012027   -0.013109    0.106063    0.055120    0.108604
    -0.003767    0.004060    0.001476   -0.006876    0.006330    0.000367
     0.003856   -0.002501   -0.001221   -0.000635    0.001961    0.000571
     0.005590   -0.005545    0.001863   -0.003016    0.003216    0.000720
     0.001421   -0.001800    0.000086   -0.003197    0.005988    0.001431
     0.000259    0.000192   -0.000687    0.003792   -0.002111    0.000056
     0.001440    0.000322    0.001483    0.000303    0.000906    0.001266


    -0.011913    0.004213   -0.000923   -0.008116    0.009255    0.001648
     0.007096   -0.010904   -0.000599   -0.004110    0.000697   -0.000935
     0.000459   -0.001684   -0.004742   -0.004802    0.004112   -0.000411
     0.000430    0.007801   -0.002727    0.002439    0.000724   -0.000092
     0.002554   -0.006306    0.001791   -0.000578    0.000737   -0.001492
    -0.001056   -0.000614    0.001431   -0.000351    0.000756   -0.000005
    -0.003767    0.003856    0.005590    0.001421    0.000259    0.001440
     0.004060   -0.002501   -0.005545   -0.001800    0.000192    0.000322
     0.001476   -0.001221    0.001863    0.000086   -0.000687    0.001483
    -0.006876   -0.000635   -0.003016   -0.003197    0.003792    0.000303
     0.006330    0.001961    0.003216    0.005988   -0.002111    0.000906
     0.000367    0.000571    0.000720    0.001431    0.000056    0.001266
     0.031488    0.000393    0.011014   -0.074122   -0.038996   -0.046248
     0.000393    0.017632    0.007347   -0.027127   -0.025769   -0.022193
     0.011014    0.007347    0.010339   -0.040540   -0.026663   -0.028843
    -0.074122   -0.027127   -0.040540    0.322630    0.118641    0.176904
    -0.038996   -0.025769   -0.026663    0.118641    0.101436    0.091906
    -0.046248   -0.022193   -0.028843    0.176904    0.091906    0.113578

 Vectors for Translations and Rotations


     0.612122    0.000000    0.000000   -0.006769   -0.176395   -0.315944
     0.000000    0.612122    0.000000   -0.008722   -0.226635   -0.341243
     0.000000    0.000000    0.612122    0.018605    0.473221   -0.281196
     0.177395    0.000000    0.000000    0.169967   -0.231681   -0.229080
     0.000000    0.177395    0.000000    0.177692    0.025420   -0.084263
     0.000000    0.000000    0.177395    0.457557    0.222789   -0.125722
     0.177395    0.000000    0.000000   -0.338001    0.071434   -0.226190
     0.000000    0.177395    0.000000   -0.393298   -0.234890   -0.087219
     0.000000    0.000000    0.177395   -0.016310    0.211533   -0.126062
     0.177395    0.000000    0.000000    0.165965   -0.079215    0.033765
     0.000000    0.177395    0.000000    0.212971   -0.098601   -0.298773
     0.000000    0.000000    0.177395   -0.436248    0.208594   -0.130548
     0.706705    0.000000    0.000000    0.040641    0.194652    0.383120
     0.000000    0.706705    0.000000    0.052227    0.250468    0.347598
     0.000000    0.000000    0.706705   -0.108495   -0.522664    0.309270
     0.177395    0.000000    0.000000   -0.136482    0.072681   -0.014566
     0.000000    0.177395    0.000000   -0.175329    0.092288    0.262997
     0.000000    0.000000    0.177395    0.363022   -0.193634    0.120563

 The Projection Matrix


     0.494326   -0.147850   -0.005242   -0.220680   -0.020936    0.002675
    -0.147850    0.457421    0.011455   -0.129197   -0.130030    0.011581
    -0.005242    0.011455    0.321952    0.042058   -0.039030   -0.257881
    -0.220680   -0.129197    0.042058    0.833489   -0.043615   -0.054954
    -0.020936   -0.130030   -0.039030   -0.043615    0.929210   -0.097561
     0.002675    0.011581   -0.257881   -0.054954   -0.097561    0.693731
    -0.169738   -0.063945   -0.091119   -0.009286    0.039185    0.110303
    -0.071652   -0.195015    0.093947   -0.007552    0.037039    0.221322
    -0.002626    0.004781   -0.243834    0.022902   -0.013101   -0.086982
    -0.110769   -0.004983    0.043893   -0.070295   -0.024632   -0.054045
    -0.110347   -0.231030   -0.041316   -0.127485   -0.091981   -0.113042
    -0.007404   -0.001079   -0.235891    0.092569    0.061215    0.105254
    -0.276934    0.175207    0.014862    0.000589    0.020113   -0.013795
     0.154356   -0.256753   -0.021756    0.128780   -0.111723   -0.035998
     0.004782   -0.013864   -0.096270   -0.031803    0.058625    0.079603
    -0.101292    0.010311   -0.035951    0.005231    0.021177    0.044425
     0.098185    0.000545    0.033543    0.111429    0.019501    0.092727
     0.006392    0.000423    0.010192   -0.078945   -0.049425   -0.139275


    -0.169738   -0.071652   -0.002626   -0.110769   -0.110347   -0.007404
    -0.063945   -0.195015    0.004781   -0.004983   -0.231030   -0.001079
    -0.091119    0.093947   -0.243834    0.043893   -0.041316   -0.235891
    -0.009286   -0.007552    0.022902   -0.070295   -0.127485    0.092569
     0.039185    0.037039   -0.013101   -0.024632   -0.091981    0.061215
     0.110303    0.221322   -0.086982   -0.054045   -0.113042    0.105254
     0.798022   -0.135884   -0.049137    0.037923    0.011448   -0.191881
    -0.135884    0.751067    0.032277    0.049612    0.003073   -0.133965
    -0.049137    0.032277    0.907627    0.023720   -0.013333   -0.099165
     0.037923    0.049612    0.023720    0.933572   -0.033068    0.093333
     0.011448    0.003073   -0.013333   -0.033068    0.824187    0.074471
    -0.191881   -0.133965   -0.099165    0.093333    0.074471    0.717665
    -0.038876    0.095121    0.007784   -0.129628    0.125004    0.027142
     0.078384   -0.015675   -0.008312   -0.000564   -0.007939    0.015916
     0.070618   -0.138465    0.022412   -0.033839    0.063973   -0.023298
    -0.086086   -0.037876   -0.019437   -0.002568    0.031881   -0.076602
    -0.006366   -0.055809    0.010772    0.027529    0.093547   -0.061404
     0.163804    0.107809    0.030610   -0.079658   -0.060385    0.183029


    -0.276934    0.154356    0.004782   -0.101292    0.098185    0.006392
     0.175207   -0.256753   -0.013864    0.010311    0.000545    0.000423
     0.014862   -0.021756   -0.096270   -0.035951    0.033543    0.010192
     0.000589    0.128780   -0.031803    0.005231    0.111429   -0.078945
     0.020113   -0.111723    0.058625    0.021177    0.019501   -0.049425
    -0.013795   -0.035998    0.079603    0.044425    0.092727   -0.139275
    -0.038876    0.078384    0.070618   -0.086086   -0.006366    0.163804
     0.095121   -0.015675   -0.138465   -0.037876   -0.055809    0.107809
     0.007784   -0.008312    0.022412   -0.019437    0.010772    0.030610
    -0.129628   -0.000564   -0.033839   -0.002568    0.027529   -0.079658
     0.125004   -0.007939    0.063973    0.031881    0.093547   -0.060385
     0.027142    0.015916   -0.023298   -0.076602   -0.061404    0.183029
     0.314246   -0.184048   -0.012341   -0.128386   -0.111598   -0.023253
    -0.184048    0.314282    0.029076   -0.006013   -0.230741   -0.012368
    -0.012341    0.029076    0.119972    0.027685   -0.052124   -0.224472
    -0.128386   -0.006013    0.027685    0.944409   -0.026806    0.065376
    -0.111598   -0.230741   -0.052124   -0.026806    0.860106    0.049811
    -0.023253   -0.012368   -0.224472    0.065376    0.049811    0.784716

 Translations and Rotations Projected Out of Hessian

 Projected Mass-Weighted Hessian Matrix:


     0.042707    0.003903    0.001950   -0.019268   -0.016244    0.008809
     0.003903    0.041330    0.000903   -0.017172   -0.059498    0.025051
     0.001950    0.000903    0.043550    0.008645    0.024804   -0.026594
    -0.019268   -0.017172    0.008645    0.067704    0.051787   -0.031741
    -0.016244   -0.059498    0.024804    0.051787    0.233711   -0.095555
     0.008809    0.025051   -0.026594   -0.031741   -0.095555    0.092252
    -0.017220    0.002060    0.014724   -0.000427   -0.001017    0.010123
     0.002462   -0.014583   -0.009145   -0.006519    0.004592    0.023511
     0.015204   -0.009908   -0.073581    0.001554   -0.001796   -0.012956
    -0.055321   -0.022488   -0.027215   -0.005018   -0.004407   -0.004275
    -0.025706   -0.025722   -0.016166   -0.017877   -0.008688   -0.012693
    -0.028763   -0.014940   -0.030752    0.011253    0.006123    0.006587
    -0.011915    0.007082    0.000482    0.000437    0.002568   -0.001060
     0.004208   -0.010918   -0.001686    0.007812   -0.006294   -0.000628
    -0.000915   -0.000605   -0.004749   -0.002726    0.001786    0.001466
    -0.008091   -0.004083   -0.004805    0.002487   -0.000541   -0.000279
     0.009255    0.000685    0.004109    0.000741    0.000762    0.000795
     0.001667   -0.000909   -0.000429   -0.000037   -0.001475    0.000045


    -0.017220    0.002462    0.015204   -0.055321   -0.025706   -0.028763
     0.002060   -0.014583   -0.009908   -0.022488   -0.025722   -0.014940
     0.014724   -0.009145   -0.073581   -0.027215   -0.016166   -0.030752
    -0.000427   -0.006519    0.001554   -0.005018   -0.017877    0.011253
    -0.001017    0.004592   -0.001796   -0.004407   -0.008688    0.006123
     0.010123    0.023511   -0.012956   -0.004275   -0.012693    0.006587
     0.066342   -0.018531   -0.063800    0.006969   -0.003271   -0.021010
    -0.018531    0.056648    0.041934    0.002120   -0.001251   -0.012046
    -0.063800    0.041934    0.270934    0.003773   -0.000390   -0.013131
     0.006969    0.002120    0.003773    0.219522    0.078605    0.106097
    -0.003271   -0.001251   -0.000390    0.078605    0.093009    0.055152
    -0.021010   -0.012046   -0.013131    0.106097    0.055152    0.108596
    -0.003725    0.004085    0.001490   -0.006883    0.006325    0.000387
     0.003879   -0.002474   -0.001222   -0.000636    0.001954    0.000574
     0.005640   -0.005550    0.001898   -0.003012    0.003206    0.000725
     0.001373   -0.001839    0.000073   -0.003161    0.006047    0.001367
     0.000257    0.000188   -0.000690    0.003814   -0.002096    0.000035
     0.001410    0.000265    0.001495    0.000312    0.000940    0.001174


    -0.011915    0.004208   -0.000915   -0.008091    0.009255    0.001667
     0.007082   -0.010918   -0.000605   -0.004083    0.000685   -0.000909
     0.000482   -0.001686   -0.004749   -0.004805    0.004109   -0.000429
     0.000437    0.007812   -0.002726    0.002487    0.000741   -0.000037
     0.002568   -0.006294    0.001786   -0.000541    0.000762   -0.001475
    -0.001060   -0.000628    0.001466   -0.000279    0.000795    0.000045
    -0.003725    0.003879    0.005640    0.001373    0.000257    0.001410
     0.004085   -0.002474   -0.005550   -0.001839    0.000188    0.000265
     0.001490   -0.001222    0.001898    0.000073   -0.000690    0.001495
    -0.006883   -0.000636   -0.003012   -0.003161    0.003814    0.000312
     0.006325    0.001954    0.003206    0.006047   -0.002096    0.000940
     0.000387    0.000574    0.000725    0.001367    0.000035    0.001174
     0.031484    0.000396    0.010994   -0.074142   -0.038993   -0.046278
     0.000396    0.017634    0.007355   -0.027152   -0.025765   -0.022207
     0.010994    0.007355    0.010332   -0.040541   -0.026656   -0.028860
    -0.074142   -0.027152   -0.040541    0.322587    0.118592    0.176926
    -0.038993   -0.025765   -0.026656    0.118592    0.101423    0.091872
    -0.046278   -0.022207   -0.028860    0.176926    0.091872    0.113737

 Eigenvectors of Proj. Mass-Weighted Hessian Matrix:


    -0.002168   -0.034821    0.459455    0.122650   -0.423400    0.314719
    -0.019357    0.145791    0.062622    0.583512    0.163576    0.387021
     0.080143   -0.230684   -0.057806   -0.426823    0.266841    0.601404
     0.169448    0.029318    0.072774    0.175020   -0.268984    0.169288
     0.095494   -0.125938   -0.029194    0.177250    0.055934    0.102038
     0.316231   -0.382042   -0.143661   -0.032882    0.016220    0.195775
    -0.325076    0.082945    0.153319   -0.067783   -0.086963    0.231862
    -0.227072    0.385981    0.130904    0.131896    0.057007    0.102996
    -0.030959   -0.111075   -0.034495   -0.148057    0.086455    0.220208
     0.160358   -0.081055    0.137152    0.062820   -0.104563   -0.021282
     0.126500   -0.053903   -0.089073    0.276736   -0.083124    0.255889
    -0.342233    0.123735    0.060112   -0.251917    0.149251    0.246068
     0.029885   -0.360710    0.704219   -0.149183   -0.042222   -0.186509
    -0.025397   -0.245443    0.227419    0.344815    0.668614   -0.084670
     0.542076    0.613851    0.286812   -0.252753    0.243284    0.063539
    -0.133095   -0.028025    0.172970   -0.060743   -0.027226    0.052360
    -0.121945    0.022004    0.151068   -0.007996    0.282596   -0.147625
     0.458649   -0.014858    0.003860    0.049680   -0.002429   -0.047059


    -0.003791   -0.369664   -0.335746   -0.135736    0.289608   -0.008865
    -0.004768    0.087097    0.502783   -0.182067    0.180015    0.121477
     0.010478   -0.095871    0.120851    0.368152    0.198431   -0.159552
    -0.127359    0.224731   -0.276074    0.433408   -0.143478    0.516513
    -0.063627    0.003398    0.121099   -0.344146   -0.039686    0.011249
    -0.201212    0.125018   -0.084936   -0.211072   -0.243449    0.263697
     0.193512    0.239693   -0.300005   -0.318382   -0.228475   -0.331380
     0.149499    0.037143    0.098624    0.487954   -0.160243   -0.068541
     0.025954    0.069260   -0.029840   -0.090456    0.002720   -0.095013
    -0.092042   -0.331110    0.101251    0.085597    0.230704   -0.126952
    -0.119407    0.391984   -0.162849    0.103201   -0.176859   -0.438944
     0.243695    0.064923   -0.043590   -0.218661   -0.004317    0.537325
     0.078537    0.342634    0.361942    0.066885   -0.111905   -0.003944
     0.101293   -0.291125   -0.389036    0.095204   -0.207479    0.014501
    -0.210021   -0.013048   -0.053454   -0.187246   -0.141992   -0.038314
    -0.273908   -0.222729    0.191456    0.001294   -0.412273   -0.011881
    -0.353547    0.426720   -0.241950    0.001963    0.582179    0.019298
     0.732087    0.123595   -0.045692   -0.004213    0.126004   -0.002821


    -0.281630    0.088150    0.045784    0.098974   -0.208742   -0.002775
     0.152117   -0.171030   -0.164681    0.127152   -0.144734   -0.009179
     0.024442   -0.045421   -0.062793   -0.263158   -0.147623   -0.005478
     0.316538   -0.228698    0.172553   -0.178930    0.032062    0.003854
    -0.047890    0.321667    0.575497   -0.582330    0.119487   -0.001583
     0.044860    0.522853   -0.309980    0.281390   -0.079945   -0.000121
     0.528955    0.038661   -0.190429   -0.172523   -0.049128    0.003101
    -0.052816    0.644643    0.111487    0.134967    0.011396   -0.002581
     0.195311   -0.126368    0.638441    0.636892    0.129206    0.000726
     0.382748    0.127607   -0.179709    0.013925    0.730185    0.010371
    -0.476221   -0.166567   -0.090848    0.013923    0.363424    0.010072
    -0.304634   -0.048873   -0.113081   -0.020873    0.455112    0.008536
    -0.055893   -0.031501    0.008854   -0.000497    0.004163   -0.196097
     0.004127   -0.092356   -0.006859   -0.000674    0.004331   -0.083577
    -0.006595   -0.056114   -0.000028    0.001261    0.003678   -0.113742
    -0.033776   -0.116247    0.004329   -0.002011   -0.009412    0.773461
     0.035587    0.158342   -0.000561   -0.002629   -0.012138    0.358719
     0.006396    0.032666    0.001407    0.005626   -0.009634    0.462886

 Vibrational Frequencies in atomic units
    -0.0000000000   -0.0000000000   -0.0000000000    0.0000000000    0.0000000000    0.0000000000
     0.0042064582    0.0402144487    0.0432112438    0.0473290200    0.0681460033    0.0756232344
     0.0761586025    0.0785253990    0.3146185233    0.3238969128    0.3502213408    0.5113525777
 **********************************************************************
 **                                                                  **
 **                       VIBRATIONAL ANALYSIS                       **
 **                       --------------------                       **
 **                                                                  **
 **        VIBRATIONAL FREQUENCIES (CM**-1) AND NORMAL MODES         **
 **     FORCE CONSTANTS (mDYN/ANGSTROM) AND REDUCED MASSES (AMU)     **
 **                  INFRARED INTENSITIES (KM/MOL)                   **
 **                                                                  **
 **********************************************************************


 Mode:                 1                      2                      3
 Frequency:       333.40                1030.85                1068.57
 Force Cnst:      0.0700                 0.9420                 1.7631
 Red. Mass:       1.0686                 1.5045                 2.6207
 IR Active:          YES                    YES                    YES
 IR Intens:      106.981                 93.197                 19.430
 Raman Active:       YES                    YES                    YES
               X      Y      Z        X      Y      Z        X      Y      Z
 C         -0.001 -0.001  0.003   -0.131  0.031 -0.034   -0.157  0.235  0.056
 H         -0.131 -0.066 -0.207    0.275  0.004  0.153   -0.445  0.195 -0.137
 H          0.199  0.154  0.027    0.293  0.045  0.085   -0.484  0.159 -0.048
 H         -0.095 -0.123  0.251   -0.405  0.479  0.079    0.163 -0.263 -0.070
 O          0.020  0.026 -0.054    0.105 -0.089 -0.004    0.147 -0.157 -0.022
 H         -0.282 -0.364  0.754   -0.272  0.521  0.151    0.309 -0.390 -0.074
 TransDip  -0.106 -0.137  0.282   -0.212  0.223  0.029   -0.105  0.094  0.006

 Mode:                 4                      5                      6
 Frequency:      1118.33                1341.92                1413.62
 Force Cnst:      0.9484                 1.3596                 1.2341
 Red. Mass:       1.2870                 1.2815                 1.0482
 IR Active:          YES                    YES                    YES
 IR Intens:        0.204                 22.838                  2.049
 Raman Active:       YES                    YES                    YES
               X      Y      Z        X      Y      Z        X      Y      Z
 C         -0.044 -0.060  0.121    0.095  0.059  0.065   -0.003  0.036 -0.047
 H          0.490 -0.389 -0.239   -0.162 -0.045 -0.275    0.527  0.011  0.269
 H         -0.360  0.551 -0.102   -0.258 -0.181  0.003   -0.338 -0.070 -0.097
 H          0.097  0.117 -0.247    0.260 -0.199 -0.005   -0.129 -0.448  0.548
 O          0.019  0.027 -0.053   -0.032 -0.059 -0.040   -0.001  0.004 -0.010
 H          0.001  0.002 -0.005   -0.465  0.656  0.142   -0.012  0.020 -0.003
 TransDip  -0.003 -0.008  0.012   -0.105  0.111  0.013   -0.028  0.002  0.036

 Mode:                 7                      8                      9
 Frequency:      1418.62                1440.49                2883.35
 Force Cnst:      1.3239                 1.2938                 5.0919
 Red. Mass:       1.1166                 1.0583                 1.0395
 IR Active:          YES                    YES                    YES
 IR Intens:        7.786                  4.126                 73.295
 Raman Active:       YES                    YES                    YES
               X      Y      Z        X      Y      Z        X      Y      Z
 C         -0.086  0.046  0.007    0.026 -0.051 -0.013    0.013 -0.048 -0.018
 H          0.333 -0.050  0.047   -0.234  0.330  0.536    0.175  0.584 -0.315
 H          0.557 -0.056  0.206    0.040  0.661 -0.129   -0.193  0.113  0.648
 H          0.403 -0.501 -0.321    0.131 -0.171 -0.050   -0.183 -0.092 -0.115
 O         -0.015  0.001 -0.002   -0.008 -0.024 -0.014    0.002 -0.002 -0.000
 H         -0.036  0.037  0.007   -0.119  0.162  0.033    0.004 -0.001  0.001
 TransDip  -0.055  0.070  0.001    0.061 -0.001  0.022    0.133 -0.231 -0.063

 Mode:                10                     11                     12
 Frequency:      2925.56                3042.12                3675.92
 Force Cnst:      5.5679                 5.9674                 8.4889
 Red. Mass:       1.1041                 1.0944                 1.0663
 IR Active:          YES                    YES                    YES
 IR Intens:       86.857                 29.490                 14.337
 Raman Active:       YES                    YES                    YES
               X      Y      Z        X      Y      Z        X      Y      Z
 C          0.030  0.039 -0.080   -0.063 -0.044 -0.045   -0.001 -0.003 -0.002
 H         -0.187 -0.610  0.295    0.033  0.125 -0.083    0.004 -0.002 -0.000
 H         -0.181  0.141  0.667   -0.051  0.012  0.135    0.003 -0.003  0.001
 H          0.015  0.015 -0.022    0.761  0.379  0.474    0.011  0.010  0.009
 O         -0.000 -0.000  0.000    0.001  0.001  0.001   -0.051 -0.022 -0.029
 H         -0.002 -0.003  0.006   -0.010 -0.013 -0.010    0.796  0.369  0.476
 TransDip   0.096  0.123 -0.255   -0.127 -0.081 -0.086    0.111  0.013  0.047

 STANDARD THERMODYNAMIC QUANTITIES AT   298.15 K  AND     1.00 ATM

   This Molecule has  0 Imaginary Frequencies
   Zero point vibrational energy:       31.011 kcal/mol

   Atom    1 Element C  Has Mass   12.00000
   Atom    2 Element H  Has Mass    1.00783
   Atom    3 Element H  Has Mass    1.00783
   Atom    4 Element H  Has Mass    1.00783
   Atom    5 Element O  Has Mass   15.99491
   Atom    6 Element H  Has Mass    1.00783
   Molecular Mass:    32.026230 amu
   Principal axes and moments of inertia in amu*Bohr^2:
                             1           2           3
    Eigenvalues --       14.50423    73.40071    76.17697
          X               0.75869     0.56827    -0.31853
          Y              -0.65081     0.63932    -0.40953
          Z              -0.02908     0.51801     0.85488
   Rotational Symmetry Number is   1
   The Molecule is an Asymmetric Top
   Translational Enthalpy:        0.889 kcal/mol
   Rotational Enthalpy:           0.889 kcal/mol
   Vibrational Enthalpy:         31.321 kcal/mol
   gas constant (RT):             0.592 kcal/mol
   Translational Entropy:        36.324  cal/mol.K
   Rotational Entropy:           19.034  cal/mol.K
   Vibrational Entropy:           1.527  cal/mol.K

   Total Enthalpy:               33.691 kcal/mol
   Total Entropy:                56.884  cal/mol.K
Archival summary:
1\1\luigi\FREQ\ProcedureUnspecified\BasisUnspecified\114\sanna\MonAug918:17:382021MonAug918:17:382021\0\\#,FREQ,ProcedureUnspecified,BasisUnspecified,\\0,1\O\H,1,0.97586\C,1,1.41961,2,106.653\H,3,1.10864,1,106.795,2,179.726,0\H,3,1.11892,1,113.672,2,61.3633,0\H,3,1.11894,1,113.724,2,-62.1496,0\\\@

 Total job time:  3.06s(wall), 34.14s(cpu) 
 Mon Aug  9 18:17:38 2021

        *************************************************************
        *                                                           *
        *  Thank you very much for using Q-Chem.  Have a nice day.  *
        *                                                           *
        *************************************************************


