                  Welcome to Q-Chem
     A Quantum Leap Into The Future Of Chemistry


 Q-Chem 5.4 (devel), Q-Chem, Inc., Pleasanton, CA (2021)

 E. Epifanovsky,  A. T. B. Gilbert,  Xintian Feng,  Joonho Lee,  Yuezhi Mao,  
 N. Mardirossian,  P. Pokhilko,  A. White,  M. Wormit,  M. P. Coons,  
 A. L. Dempwolff,  Zhengting Gan,  D. Hait,  P. R. Horn,  L. D. Jacobson,  
 I. Kaliman,  J. Kussmann,  A. W. Lange,  Ka Un Lao,  D. S. Levine,  Jie Liu,  
 S. C. McKenzie,  A. F. Morrison,  K. Nanda,  F. Plasser,  D. R. Rehn,  
 M. L. Vidal,  Zhi-Qiang You,  Ying Zhu,  B. Alam,  B. Albrecht,  
 A. Aldossary,  E. Alguire,  J. H. Andersen,  D. Barton,  K. Begam,  A. Behn,  
 Y. A. Bernard,  E. J. Berquist,  H. Burton,  A. Carreras,  K. Carter-Fenk,  
 R. Chakraborty,  A. D. Chien,  K. D. Closser,  V. Cofer-Shabica,  
 S. Dasgupta,  Jia Deng,  M. de Wergifosse,  M. Diedenhofen,  Hainam Do,  
 S. Ehlert,  Po-Tung Fang,  S. Fatehi,  Qingguo Feng,  J. Gayvert,  
 Qinghui Ge,  G. Gidofalvi,  M. Goldey,  J. Gomes,  C. Gonzalez-Espinoza,  
 S. Gulania,  A. Gunina,  M. W. D. Hanson-Heine,  P. H. P. Harbach,  
 A. W. Hauser,  M. F. Herbst,  M. Hernandez Vera,  M. Hodecker,  
 Z. C. Holden,  S. Houck,  Xunkun Huang,  Kerwin Hui,  B. C. Huynh,  
 M. Ivanov,  Hyunjun Ji,  Hanjie Jiang,  B. Kaduk,  S. Kaehler,  
 K. Khistyaev,  Jaehoon Kim,  P. Klunzinger,  Z. Koczor-Benda,  
 Joong Hoon Koh,  D. Kosenkov,  L. Koulias,  T. Kowalczyk,  C. M. Krauter,  
 K. Kue,  A. Kunitsa,  T. Kus,  A. Landau,  K. V. Lawler,  D. Lefrancois,  
 S. Lehtola,  Rain Li,  Yi-Pei Li,  Jiashu Liang,  M. Liebenthal,  
 Hung-Hsuan Lin,  You-Sheng Lin,  Fenglai Liu,  Kuan-Yu Liu,  
 M. Loipersberger,  A. Luenser,  A. Manjanath,  P. Manohar,  E. Mansoor,  
 S. F. Manzer,  Shan-Ping Mao,  A. V. Marenich,  T. Markovich,  S. Mason,  
 S. A. Maurer,  P. F. McLaughlin,  M. F. S. J. Menger,  J.-M. Mewes,  
 S. A. Mewes,  P. Morgante,  J. W. Mullinax,  T. S. Nguyen-Beck,  
 K. J. Oosterbaan,  G. Paran,  Alexander C. Paul,  Suranjan K. Paul,  
 F. Pavosevic,  Zheng Pei,  S. Prager,  E. I. Proynov,  E. Ramos,  B. Rana,  
 A. E. Rask,  A. Rettig,  R. M. Richard,  F. Rob,  E. Rossomme,  T. Scheele,  
 M. Scheurer,  M. Schneider,  N. Sergueev,  S. M. Sharada,  W. Skomorowski,  
 D. W. Small,  C. J. Stein,  Yu-Chuan Su,  E. J. Sundstrom,  Zhen Tao,  
 J. Thirman,  T. Tsuchimochi,  N. M. Tubman,  S. P. Veccham,  O. Vydrov,  
 J. Wenzel,  J. Witte,  A. Yamada,  Kun Yao,  S. Yeganeh,  S. R. Yost,  
 A. Zech,  Igor Ying Zhang,  Xing Zhang,  Yu Zhang,  D. Zuev,  
 A. Aspuru-Guzik,  A. T. Bell,  N. A. Besley,  K. B. Bravaya,  B. R. Brooks,  
 D. Casanova,  Jeng-Da Chai,  S. Coriani,  C. J. Cramer,  
 A. E. DePrince, III,  R. A. DiStasio Jr.,  A. Dreuw,  B. D. Dunietz,  
 T. R. Furlani,  W. A. Goddard III,  S. Grimme,  S. Hammes-Schiffer,  
 T. Head-Gordon,  W. J. Hehre,  Chao-Ping Hsu,  T.-C. Jagau,  Yousung Jung,  
 A. Klamt,  Jing Kong,  D. S. Lambrecht,  WanZhen Liang,  N. J. Mayhall,  
 C. W. McCurdy,  J. B. Neaton,  C. Ochsenfeld,  J. A. Parkhill,  R. Peverati,  
 V. A. Rassolov,  Yihan Shao,  L. V. Slipchenko,  T. Stauch,  R. P. Steele,  
 J. E. Subotnik,  A. J. W. Thom,  A. Tkatchenko,  D. G. Truhlar,  
 T. Van Voorhis,  T. A. Wesolowski,  K. B. Whaley,  H. L. Woodcock III,  
 P. M. Zimmerman,  S. Faraji,  P. M. W. Gill,  M. Head-Gordon,  
 J. M. Herbert,  A. I. Krylov

 Contributors to earlier versions of Q-Chem not listed above: 
 R. D. Adamson,  B. Austin,  R. Baer,  J. Baker,  G. J. O. Beran,  
 K. Brandhorst,  S. T. Brown,  E. F. C. Byrd,  A. K. Chakraborty,  
 G. K. L. Chan,  Chun-Min Chang,  Yunqing Chen,  C.-L. Cheng,  
 Siu Hung Chien,  D. M. Chipman,  D. L. Crittenden,  H. Dachsel,  
 R. J. Doerksen,  A. D. Dutoi,  R. G. Edgar,  J. Fosso-Tande,  
 L. Fusti-Molnar,  D. Ghosh,  A. Ghysels,  A. Golubeva-Zadorozhnaya,  
 J. Gonthier,  M. S. Gordon,  S. R. Gwaltney,  G. Hawkins,  J. E. Herr,  
 A. Heyden,  S. Hirata,  E. G. Hohenstein,  G. Kedziora,  F. J. Keil,  
 C. Kelley,  Jihan Kim,  R. A. King,  R. Z. Khaliullin,  P. P. Korambath,  
 W. Kurlancheek,  A. Laurent,  A. M. Lee,  M. S. Lee,  S. V. Levchenko,  
 Ching Yeh Lin,  D. Liotard,  E. Livshits,  R. C. Lochan,  I. Lotan,  
 L. A. Martinez-Martinez,  P. E. Maslen,  N. Nair,  D. P. O'Neill,  
 D. Neuhauser,  E. Neuscamman,  C. M. Oana,  R. Olivares-Amaya,  R. Olson,  
 T. M. Perrine,  B. Peters,  P. A. Pieniazek,  A. Prociuk,  Y. M. Rhee,  
 J. Ritchie,  M. A. Rohrdanz,  E. Rosta,  N. J. Russ,  H. F. Schaefer III,  
 M. W. Schmidt,  N. E. Schultz,  S. Sharma,  N. Shenvi,  C. D. Sherrill,  
 A. C. Simmonett,  A. Sodt,  T. Stein,  D. Stuck,  K. S. Thanthiriwatte,  
 V. Vanovschi,  L. Vogt,  Tao Wang,  A. Warshel,  M. A. Watson,  
 C. F. Williams,  Q. Wu,  X. Xu,  Jun Yang,  W. Zhang,  Yan Zhao

 Please cite Q-Chem as follows:
 Y. Shao et al., Mol. Phys. 113, 184-215 (2015)
 DOI: 10.1080/00268976.2014.952696

 Q-Chem 5.4.0 for Intel X86 EM64T Linux

 Parts of Q-Chem use Armadillo 9.800.1 (Horizon Scraper).
 http://arma.sourceforge.net/

 Q-Chem begins on Mon Aug  9 17:57:04 2021  

 Host: 
0

     Scratch files written to /home/sanna/qcscratch/qchem84378//
 Processing $rem in /home/zellerf/qchem/trunk/qc540rc1//config/preferences:
 Processing $rem in /home/sanna/.qchemrc:

 Checking the input file for inconsistencies... 	...done.

--------------------------------------------------------------
User input:
--------------------------------------------------------------
$molecule
0 1
C	0.3759514396	-1.9478120681	2.4394413932
H	0.6360829524	-0.9745166052	1.9526037794
H	0.0488386151	-1.7246337723	3.4859684215
H	-0.4997753104	-2.3651930240	1.9027993523
O	1.4078790783	-2.9193393597	2.3585046540
H	2.1789015250	-2.5481046707	2.8275587996
$end

$rem
   GEOM_OPT_LINEAR_ANGLE = 179
   BASIS  =  cc-pVDZ
   JOB_TYPE  =  Optimization
   METHOD  =  PBE
   GEOM_OPT_TOL_GRADIENT = 20000
   GEOM_OPT_TOL_ENERGY = 20000
   GEOM_OPT_TOL_DISPLACEMENT = 20000
   GEOM_OPT_PRINT = 7
   SYM_IGNORE = True
$end


--------------------------------------------------------------
 ----------------------------------------------------------------
             Standard Nuclear Orientation (Angstroms)
    I     Atom           X                Y                Z
 ----------------------------------------------------------------
    1      C       0.3759514396    -1.9478120681     2.4394413932
    2      H       0.6360829524    -0.9745166052     1.9526037794
    3      H       0.0488386151    -1.7246337723     3.4859684215
    4      H      -0.4997753104    -2.3651930240     1.9027993523
    5      O       1.4078790783    -2.9193393597     2.3585046540
    6      H       2.1789015250    -2.5481046707     2.8275587996
 ----------------------------------------------------------------
 Nuclear Repulsion Energy =          39.97082564 hartrees
 There are        9 alpha and        9 beta electrons
 Requested basis set is cc-pVDZ
 There are 24 shells and 48 basis functions

 Total QAlloc Memory Limit   2000 MB
 Mega-Array Size       188 MB
 MEM_STATIC part       192 MB
 A cutoff of  1.0D-11 yielded    300 shell pairs
 There are      1220 function pairs (      1329 Cartesian)
 Smallest overlap matrix eigenvalue = 1.73E-02

 Scale SEOQF with 1.000000e-01/1.000000e-01/1.000000e-01

 Standard Electronic Orientation quadrupole field applied
 Nucleus-field energy     =    -0.0000000031 hartrees
 Guess from superposition of atomic densities
 Warning:  Energy on first SCF cycle will be non-variational
 SAD guess density has 18.000000 electrons

 -----------------------------------------------------------------------
  General SCF calculation program by
  Eric Jon Sundstrom, Paul Horn, Yuezhi Mao, Dmitri Zuev, Alec White,
  David Stuck, Shaama M.S., Shane Yost, Joonho Lee, David Small,
  Daniel Levine, Susi Lehtola, Hugh Burton, Evgeny Epifanovsky,
  Bang C. Huynh
 -----------------------------------------------------------------------
 Exchange:  PBE      Correlation:  PBE
 Using SG-1 standard quadrature grid
 using 12 threads for integral computing
 -------------------------------------------------------
 OpenMP Integral computing Module                
 Release: version 1.0, May 2013, Q-Chem Inc. Pittsburgh 
 -------------------------------------------------------
 A restricted SCF calculation will be
 performed using DIIS
 SCF converges when DIIS error is below 1.0e-08
 ---------------------------------------
  Cycle       Energy         DIIS error
 ---------------------------------------
    1    -115.6658990230      9.15e-02  
    2    -115.5048572552      1.66e-02  
    3    -115.4180667862      2.55e-02  
    4    -115.5765416570      2.77e-03  
    5    -115.5781822708      1.13e-03  
    6    -115.5784959321      1.32e-04  
    7    -115.5785003980      1.38e-05  
    8    -115.5785004480      1.81e-06  
    9    -115.5785004492      3.99e-07  
   10    -115.5785004492      4.93e-08  
   11    -115.5785004492      7.48e-09  Convergence criterion met
 ---------------------------------------
 SCF time:   CPU 12.83s  wall 1.00s 
 SCF   energy in the final basis set =     -115.5785004492
 Total energy in the final basis set =     -115.5785004492

 --------------------------------------------------------------

                    Orbital Energies (a.u.)
 --------------------------------------------------------------

 Alpha MOs
 -- Occupied --
-18.7537  -9.9336  -0.9202  -0.6043  -0.4451  -0.3745  -0.3646  -0.2775
 -0.2094
 -- Virtual --
  0.0331   0.0704   0.1103   0.1142   0.1619   0.4125   0.4283   0.4469
  0.5253   0.5841   0.5975   0.6029   0.8135   0.8426   0.9150   0.9580
  1.0072   1.1462   1.2819   1.3258   1.3474   1.5312   1.5486   1.5774
  1.5785   1.6668   1.7755   1.9145   1.9875   2.0140   2.0746   2.3000
  2.3044   2.3359   2.8356   2.9132   2.9633   3.0936   3.5621
 --------------------------------------------------------------

          Ground-State Mulliken Net Atomic Charges

     Atom                 Charge (a.u.)
  ----------------------------------------
      1 C                     0.034187
      2 H                     0.018153
      3 H                     0.017948
      4 H                     0.044061
      5 O                    -0.253181
      6 H                     0.138831
  ----------------------------------------
  Sum of atomic charges =     0.000000

 -----------------------------------------------------------------
                    Cartesian Multipole Moments
 -----------------------------------------------------------------
    Charge (ESU x 10^10)
                 0.0000
    Dipole Moment (Debye)
         X       0.2913      Y       1.2533      Z       0.7136
       Tot       1.4713
    Quadrupole Moments (Debye-Ang)
        XX     -10.3511     XY       0.8859     YY     -20.1899
        XZ       2.5996     YZ       1.2234     ZZ      -9.7523
    Octopole Moments (Debye-Ang^2)
       XXX     -21.9297    XXY      25.2687    XYY     -17.7805
       YYY     120.8312    XXZ     -21.2363    XYZ      -2.8704
       YYZ     -44.5835    XZZ       0.3111    YZZ      29.1770
       ZZZ     -83.1518
    Hexadecapole Moments (Debye-Ang^3)
      XXXX     -68.0222   XXXY      61.1908   XXYY     -85.6810
      XYYY     116.8893   YYYY    -570.6517   XXXZ     -44.2127
      XXYZ      51.1056   XYYZ     -30.0838   YYYZ     281.9956
      XXZZ     -60.8279   XYZZ       8.8584   YYZZ    -178.2819
      XZZZ     -38.8876   YZZZ     207.2698   ZZZZ    -441.9301
 -----------------------------------------------------------------
 Calculating analytic gradient of the SCF energy
 Gradient of SCF Energy
            1           2           3           4           5           6
    1   0.0005206  -0.0000812  -0.0005042   0.0000808   0.0001564  -0.0001724
    2  -0.0005461   0.0007232   0.0004514  -0.0002260  -0.0003581  -0.0000444
    3  -0.0001319  -0.0000176   0.0003372   0.0001474  -0.0001345  -0.0002006
 Max gradient component =       7.232E-04
 RMS gradient           =       3.342E-04
 Gradient time:  CPU 1.59 s  wall 0.20 s
 Geometry Optimization Parameters
   NAtoms,    NIC,     NZ,  NCons,   NDum,   NFix, NCnnct, MaxDiis
        6      27       0       0       0       0       0       0

 Rotation Matrix is:


     1.000000    0.000000    0.000000
     0.000000    1.000000    0.000000
     0.000000    0.000000    1.000000


** GEOMETRY OPTIMIZATION IN DELOCALIZED INTERNAL COORDINATES **
   Searching for a Minimum

   Optimization Cycle:   1

                       Coordinates (Angstroms)
     ATOM                X               Y               Z
      1  C         0.3759514396   -1.9478120681    2.4394413932
      2  H         0.6360829524   -0.9745166052    1.9526037794
      3  H         0.0488386151   -1.7246337723    3.4859684215
      4  H        -0.4997753104   -2.3651930240    1.9027993523
      5  O         1.4078790783   -2.9193393597    2.3585046540
      6  H         2.1789015250   -2.5481046707    2.8275587996
   Point Group: c1    Number of degrees of freedom:    12


   Energy is   -115.578500449


                       Cartesian Gradient (au)
     ATOM              X           Y           Z
    1  C           0.000521   -0.000546   -0.000132
    2  H          -0.000081    0.000723   -0.000018
    3  H          -0.000504    0.000451    0.000337
    4  H           0.000081   -0.000226    0.000147
    5  O           0.000156   -0.000358   -0.000135
    6  H          -0.000172   -0.000044   -0.000201

 Attempting to generate delocalized internal coordinates
 Generating Primitive Internal Coordinates
 Primitive Stretches:
         2    1
         3    1
         4    1
         5    1
         6    5
 There are      5 Stretches
 Primitive Bends:
         2    1    3
         2    1    4
         3    1    4
         2    1    5
         3    1    5
         4    1    5
         6    5    1
 There are      7 Bends
 Primitive Torsions:
         6    5    1    2
         6    5    1    3
         6    5    1    4
 There are      3 Torsions
 There are     15 Primitive Internals
  CALCULATING B-MATRIX COLUMN:           1
  CALCULATING B-MATRIX COLUMN:           2
  CALCULATING B-MATRIX COLUMN:           3
  CALCULATING B-MATRIX COLUMN:           4
  CALCULATING B-MATRIX COLUMN:           5
  CALCULATING B-MATRIX COLUMN:           6
  CALCULATING B-MATRIX COLUMN:           7
  CALCULATING B-MATRIX COLUMN:           8
  CALCULATING B-MATRIX COLUMN:           9
  CALCULATING B-MATRIX COLUMN:          10
  CALCULATING B-MATRIX COLUMN:          11
  CALCULATING B-MATRIX COLUMN:          12
  CALCULATING B-MATRIX COLUMN:          13
  CALCULATING B-MATRIX COLUMN:          14
  CALCULATING B-MATRIX COLUMN:          15

      B-Matrix



    -0.232484    0.292341    0.789909   -0.726910    0.000000   -0.038639
    -0.869852   -0.199455    0.376479    0.684362    0.000000    0.690229
     0.435096   -0.935283    0.484053    0.057013    0.000000    0.322872
     0.232484    0.000000    0.000000    0.000000    0.000000    0.110246
     0.869852    0.000000    0.000000    0.000000    0.000000   -0.228971
    -0.435096    0.000000    0.000000    0.000000    0.000000   -0.398856
     0.000000   -0.292341    0.000000    0.000000    0.000000   -0.071607
     0.000000    0.199455    0.000000    0.000000    0.000000   -0.461257
     0.000000    0.935283    0.000000    0.000000    0.000000    0.075984
     0.000000    0.000000   -0.789909    0.000000    0.000000    0.000000
     0.000000    0.000000   -0.376479    0.000000    0.000000    0.000000
     0.000000    0.000000   -0.484053    0.000000    0.000000    0.000000
     0.000000    0.000000    0.000000    0.726910   -0.790095    0.000000
     0.000000    0.000000    0.000000   -0.684362   -0.380418    0.000000
     0.000000    0.000000    0.000000   -0.057013   -0.480657    0.000000
     0.000000    0.000000    0.000000    0.000000    0.790095    0.000000
     0.000000    0.000000    0.000000    0.000000    0.380418    0.000000
     0.000000    0.000000    0.000000    0.000000    0.480657    0.000000


    -0.359487   -0.697550    0.636971    0.314795    0.022844   -0.226359
     0.321638   -0.113299    0.069152   -0.342972   -0.619038   -0.224322
    -0.595397    0.293465   -0.306050    0.536412   -0.293052   -0.193372
     0.357038    0.000000   -0.423563    0.000000    0.000000    0.000000
     0.057062    0.000000    0.173052    0.000000    0.000000    0.000000
     0.304854    0.000000    0.119646    0.000000    0.000000    0.000000
     0.000000    0.434194    0.000000   -0.314748    0.000000    0.000000
     0.000000    0.157127    0.000000    0.312074    0.000000    0.000000
     0.000000    0.102208    0.000000   -0.164933    0.000000    0.000000
     0.002449    0.263356    0.000000    0.000000   -0.248629    0.000000
    -0.378700   -0.043828    0.000000    0.000000    0.395452    0.000000
     0.290542   -0.395673    0.000000    0.000000    0.098161    0.000000
     0.000000    0.000000   -0.213407   -0.000047    0.225785   -0.056919
     0.000000    0.000000   -0.242204    0.030898    0.223586    0.673384
     0.000000    0.000000    0.186404   -0.371480    0.194891    0.303608
     0.000000    0.000000    0.000000    0.000000    0.000000    0.283278
     0.000000    0.000000    0.000000    0.000000    0.000000   -0.449061
     0.000000    0.000000    0.000000    0.000000    0.000000   -0.110236


     0.222063   -0.503011    0.161994
     0.179008   -0.538796    0.207442
     0.682532    0.054178   -0.424639
    -0.195847    0.000000    0.000000
    -0.170849    0.000000    0.000000
    -0.446212    0.000000    0.000000
     0.000000    0.354753    0.000000
     0.000000    0.374219    0.000000
     0.000000    0.031081    0.000000
     0.000000    0.000000   -0.161346
     0.000000    0.000000   -0.206705
     0.000000    0.000000    0.424063
     0.155306    0.329780    0.180874
     0.224872    0.397609    0.232294
    -0.719136   -0.568075   -0.482240
    -0.181522   -0.181522   -0.181522
    -0.233031   -0.233031   -0.233031
     0.482816    0.482816    0.482816

 Generating Delocalized Internal Coordinates

      B*B(t) Matrix



     2.000000   -0.301406   -0.300513   -0.401493    0.000000   -0.450934
    -0.301406    2.000000   -0.296894   -0.402329    0.000000   -0.450942
    -0.300513   -0.296894    2.000000   -0.288947    0.000000    0.385623
    -0.401493   -0.402329   -0.288947    2.000000   -0.286580    0.518862
     0.000000    0.000000    0.000000   -0.286580    2.000000    0.000000
    -0.450934   -0.450942    0.385623    0.518862    0.000000    1.029482
    -0.455257    0.387619   -0.451075    0.447486    0.000000   -0.051640
     0.388408   -0.455798   -0.451602    0.446250    0.000000   -0.052299
    -0.341399    0.458664    0.381039   -0.433144    0.171155   -0.209738
     0.458541   -0.341262    0.379190   -0.432962    0.166838   -0.209640
     0.405655    0.404235   -0.356862   -0.456960   -0.357123   -0.522778
     0.163617    0.159426   -0.356858   -0.519523   -0.357127   -0.208522
     0.089630   -0.609146    0.573184   -0.000000    0.137406    0.530850
     0.609188   -0.090257   -0.573953   -0.000000   -0.138766   -0.530617
    -0.402864    0.403140    0.000510   -0.000000    0.000515   -0.000181


    -0.455257    0.388408   -0.341399    0.458541    0.405655    0.163617
     0.387619   -0.455798    0.458664   -0.341262    0.404235    0.159426
    -0.451075   -0.451602    0.381039    0.379190   -0.356862   -0.356858
     0.447486    0.446250   -0.433144   -0.432962   -0.456960   -0.519523
     0.000000    0.000000    0.171155    0.166838   -0.357123   -0.357127
    -0.051640   -0.052299   -0.209738   -0.209640   -0.522778   -0.208522
     1.038681   -0.058127   -0.129398   -0.542856   -0.154682    0.124356
    -0.058127    1.037028   -0.541969   -0.127793   -0.153449    0.126564
    -0.129398   -0.541969    0.866800   -0.064090   -0.004577   -0.194871
    -0.542856   -0.127793   -0.064090    0.867076   -0.003193   -0.190023
    -0.154682   -0.153449   -0.004577   -0.003193    0.836395    0.387239
     0.124356    0.126564   -0.194871   -0.190023    0.387239    0.981869
    -0.644334    0.025118   -0.276720    0.648713   -0.360566   -0.298155
    -0.024729    0.643827   -0.646814    0.278806    0.358814    0.300749
     0.462407   -0.462341    0.062738   -0.061622   -0.001480   -0.001374


     0.089630    0.609188   -0.402864
    -0.609146   -0.090257    0.403140
     0.573184   -0.573953    0.000510
    -0.000000   -0.000000   -0.000000
     0.137406   -0.138766    0.000515
     0.530850   -0.530617   -0.000181
    -0.644334   -0.024729    0.462407
     0.025118    0.643827   -0.462341
    -0.276720   -0.646814    0.062738
     0.648713    0.278806   -0.061622
    -0.360566    0.358814   -0.001480
    -0.298155    0.300749   -0.001374
     1.726065    0.698344    0.530765
     0.698344    1.723033    0.530064
     0.530765    0.530064    1.137778

   Eigenvalues of B*B(t):
    -0.000000   -0.000000    0.000000    0.266378    0.432600    0.461708
     0.832812    0.878589    0.886219    1.237464    2.146241    2.510203
     3.468188    4.055608    4.068198

   Eigenvectors:


     0.000000    0.000000   -0.000000    0.059392   -0.184244   -0.091647
    -0.000000    0.000000   -0.000000    0.058841    0.185535   -0.089124
     0.000000    0.000000    0.000000   -0.031470   -0.001146    0.197101
     0.000000   -0.000000    0.000000    0.431104   -0.000083    0.337638
    -0.000000    0.000000    0.000000    0.081549   -0.000005    0.316632
    -0.061429    0.600943    0.060978   -0.199817   -0.001715    0.095188
    -0.394020   -0.008684    0.460645   -0.093528    0.203307   -0.246164
     0.394377    0.072835    0.454803   -0.092972   -0.200921   -0.248443
    -0.221571    0.356066    0.252542    0.305194   -0.623501   -0.167403
     0.147448    0.393906    0.248982    0.301076    0.628492   -0.160757
    -0.000150    0.034245    0.489191   -0.259728   -0.004379    0.711231
     0.000000    0.000000    0.000000    0.682732   -0.000175    0.172891
    -0.273699   -0.447623    0.327924    0.111120   -0.100615   -0.069238
    -0.364270    0.381641   -0.323436   -0.111724   -0.101986    0.069071
     0.637968    0.065982   -0.004488    0.000698   -0.213598   -0.000373


     0.433649    0.443432   -0.100350   -0.405777    0.053862   -0.299816
     0.440261   -0.437135   -0.100586   -0.404371    0.052037    0.301162
     0.312819    0.003132    0.654690   -0.113336   -0.271755   -0.000978
    -0.039020   -0.000665    0.050123   -0.489909   -0.008550    0.000264
     0.093901    0.000303    0.081256    0.114323    0.906786   -0.000895
     0.451843    0.002999   -0.419721    0.188395   -0.068369   -0.000774
     0.135412    0.453860    0.295532    0.094053    0.107775    0.168351
     0.141310   -0.452239    0.296552    0.092651    0.108329   -0.167311
    -0.275831   -0.027700   -0.017701   -0.150344    0.021787   -0.033035
    -0.275096    0.023979   -0.017905   -0.149468    0.020321    0.033187
    -0.143434   -0.000896   -0.082937   -0.052472   -0.176092   -0.000356
     0.285153    0.001858    0.046681    0.552459   -0.191189   -0.000027
     0.084217   -0.152595   -0.300463    0.005850   -0.028823    0.432506
    -0.081905   -0.153630    0.301099   -0.006132    0.030020    0.433458
    -0.003102    0.391815   -0.000219    0.000281    0.000618    0.621236


    -0.188025   -0.201259    0.475467
    -0.188544   -0.370166   -0.360059
    -0.323001    0.482631   -0.098569
     0.655358    0.159683   -0.032228
    -0.154021    0.133546   -0.028033
     0.193691    0.345658   -0.069893
     0.277268   -0.175346   -0.231752
     0.276328   -0.071103    0.281819
    -0.263604    0.033008   -0.280207
    -0.263513    0.139421    0.245577
    -0.161067   -0.308391    0.062697
    -0.045459   -0.271064    0.056434
    -0.083763    0.390513    0.349035
     0.082761   -0.221798    0.472814
    -0.000290   -0.010999   -0.058429

 There are      3 Redundant primitive internals

  Preliminary Set of Delocalized Internal Coordinates:


     0.059392   -0.184244   -0.091647    0.433649    0.443432   -0.100350
     0.058841    0.185535   -0.089124    0.440261   -0.437135   -0.100586
    -0.031470   -0.001146    0.197101    0.312819    0.003132    0.654690
     0.431104   -0.000083    0.337638   -0.039020   -0.000665    0.050123
     0.081549   -0.000005    0.316632    0.093901    0.000303    0.081256
    -0.199817   -0.001715    0.095188    0.451843    0.002999   -0.419721
    -0.093528    0.203307   -0.246164    0.135412    0.453860    0.295532
    -0.092972   -0.200921   -0.248443    0.141310   -0.452239    0.296552
     0.305194   -0.623501   -0.167403   -0.275831   -0.027700   -0.017701
     0.301076    0.628492   -0.160757   -0.275096    0.023979   -0.017905
    -0.259728   -0.004379    0.711231   -0.143434   -0.000896   -0.082937
     0.682732   -0.000175    0.172891    0.285153    0.001858    0.046681
     0.111120   -0.100615   -0.069238    0.084217   -0.152595   -0.300463
    -0.111724   -0.101986    0.069071   -0.081905   -0.153630    0.301099
     0.000698   -0.213598   -0.000373   -0.003102    0.391815   -0.000219


    -0.405777    0.053862   -0.299816   -0.188025   -0.201259    0.475467
    -0.404371    0.052037    0.301162   -0.188544   -0.370166   -0.360059
    -0.113336   -0.271755   -0.000978   -0.323001    0.482631   -0.098569
    -0.489909   -0.008550    0.000264    0.655358    0.159683   -0.032228
     0.114323    0.906786   -0.000895   -0.154021    0.133546   -0.028033
     0.188395   -0.068369   -0.000774    0.193691    0.345658   -0.069893
     0.094053    0.107775    0.168351    0.277268   -0.175346   -0.231752
     0.092651    0.108329   -0.167311    0.276328   -0.071103    0.281819
    -0.150344    0.021787   -0.033035   -0.263604    0.033008   -0.280207
    -0.149468    0.020321    0.033187   -0.263513    0.139421    0.245577
    -0.052472   -0.176092   -0.000356   -0.161067   -0.308391    0.062697
     0.552459   -0.191189   -0.000027   -0.045459   -0.271064    0.056434
     0.005850   -0.028823    0.432506   -0.083763    0.390513    0.349035
    -0.006132    0.030020    0.433458    0.082761   -0.221798    0.472814
     0.000281    0.000618    0.621236   -0.000290   -0.010999   -0.058429

  Inverse B-Matrix



    -0.071160   -0.096277   -0.144411   -0.158591    0.023433   -0.078800
     0.255362   -0.123785   -0.146735    0.149042    0.032115   -0.011727
     0.096565    0.256492   -0.124943    0.013144   -0.064111   -0.035938
    -0.723204    0.724370   -0.030835    0.359404    0.349520    0.115385
     0.472663   -0.552426   -0.287414    0.263393    0.491936    0.083443
     0.046089    0.261495   -0.134868   -0.478138    0.010250    0.488724
    -0.666943   -0.867664   -0.029311   -0.050642   -0.148909    0.339276
     0.530990    0.379561   -0.270820   -0.258042   -0.238608    0.369235
    -0.085525    0.106411   -0.157796    0.604424   -0.527629   -0.094048
     0.242544   -0.036890   -0.863090   -0.208198   -0.208809   -0.471291
    -0.193380   -0.058564    0.674108   -0.277762   -0.266996   -0.456033
    -0.001327    0.111220    0.002233   -0.220201    0.541043   -0.402397
     0.250900    0.101946    0.419524   -0.128223    0.001577    0.008151
    -0.031062    0.130840   -0.062140    0.234013    0.005073    0.003965
     0.079416   -0.271145    0.127590    0.064779   -0.006520    0.005167
     0.967862    0.174516    0.648123    0.186251   -0.016812    0.087279
    -1.034573    0.224373    0.093002   -0.110644   -0.023519    0.011116
    -0.135218   -0.464472    0.287783    0.015993    0.046967    0.038491


    -0.103148   -0.130132    0.072124   -0.388494    0.152565   -0.162998
     0.128727   -0.030269    0.092589    0.242787    0.277005   -0.224943
     0.023274   -0.063935   -0.190925   -0.029743    0.286806    0.287365
     0.018221    0.018582   -0.032026    0.059020   -0.039883    0.017309
    -0.337588    0.036040   -0.131711   -0.064411   -0.080191    0.075769
     0.088474    0.024302   -0.005921    0.027368   -0.067575   -0.107890
     0.153396    0.019091   -0.006895    0.078868   -0.017254    0.079413
    -0.163184    0.035649    0.082344   -0.038866   -0.070010    0.063487
    -0.266638    0.024288    0.108561   -0.025185   -0.088051   -0.083347
     0.102756    0.133786   -0.056977    0.106305   -0.079381    0.035729
    -0.014399   -0.006064   -0.073543   -0.017053   -0.057170    0.036722
     0.032725    0.047977    0.150982    0.032189   -0.071843   -0.036810
    -0.370685   -0.349753    0.131603    0.183034   -0.016071    0.066127
     0.551780   -0.235888    0.168513   -0.111536   -0.103112    0.101545
     0.126975   -0.245938   -0.348577    0.015452   -0.101307   -0.145080
     0.199461    0.308427   -0.107830   -0.038733    0.000024   -0.035578
    -0.165336    0.200532   -0.138193   -0.010921    0.033478   -0.052580
    -0.004809    0.213306    0.285880   -0.020081    0.041971    0.085762

  Primitive Weights in Final Non-Redundant Optimization Space

  Weight for primitive     1 is    1.000000
  Weight for primitive     2 is    1.000000
  Weight for primitive     3 is    1.000000
  Weight for primitive     4 is    1.000000
  Weight for primitive     5 is    1.000000
  Weight for primitive     6 is    0.631376
  Weight for primitive     7 is    0.632479
  Weight for primitive     8 is    0.632316
  Weight for primitive     9 is    0.760346
  Weight for primitive    10 is    0.761105
  Weight for primitive    11 is    0.759519
  Weight for primitive    12 is    1.000000
  Weight for primitive    13 is    0.617189
  Weight for primitive    14 is    0.617047
  Weight for primitive    15 is    0.588623
 Setting up default Hessian from a force field
 Initial Hessian constructed with Jon Baker's OPTIMIZE code

   Hessian Matrix


     0.209306   -0.000017    0.047498    0.002039   -0.000057    0.012667
    -0.000017    0.160995    0.000009    0.000139   -0.017776   -0.000090
     0.047498    0.000009    0.234182    0.006902   -0.000157    0.032141
     0.002039    0.000139    0.006902    0.237801    0.000378    0.030117
    -0.000057   -0.017776   -0.000157    0.000378    0.191317    0.000332
     0.012667   -0.000090    0.032141    0.030117    0.000332    0.211400
    -0.059739   -0.000004   -0.022905   -0.052607   -0.000485   -0.002288
     0.029166    0.000051    0.092096    0.024645    0.000133   -0.007502
    -0.000015    0.049805    0.000024    0.000464   -0.057754   -0.000224
     0.071317   -0.000012    0.034009   -0.052691   -0.000447   -0.032658
     0.004351   -0.002943    0.059817   -0.018560    0.015993    0.095014
    -0.000818   -0.013767   -0.012403    0.003037    0.079527   -0.019372


    -0.059739    0.029166   -0.000015    0.071317    0.004351   -0.000818
    -0.000004    0.000051    0.049805   -0.000012   -0.002943   -0.013767
    -0.022905    0.092096    0.000024    0.034009    0.059817   -0.012403
    -0.052607    0.024645    0.000464   -0.052691   -0.018560    0.003037
    -0.000485    0.000133   -0.057754   -0.000447    0.015993    0.079527
    -0.002288   -0.007502   -0.000224   -0.032658    0.095014   -0.019372
     0.281953    0.037121   -0.000076   -0.061335    0.011344   -0.002396
     0.037121    0.470646   -0.000462   -0.041188    0.019426   -0.004167
    -0.000076   -0.000462    0.076493    0.000164   -0.017812   -0.086279
    -0.061335   -0.041188    0.000164    0.309029    0.018577   -0.003537
     0.011344    0.019426   -0.017812    0.018577    0.210386   -0.009510
    -0.002396   -0.004167   -0.086279   -0.003537   -0.009510    0.166682

 12 Hessian modes will be used to form the next step
  Hessian Eigenvalues:
     0.013051    0.095354    0.103728    0.160000    0.160000    0.160000
     0.160000    0.316714    0.316735    0.327441    0.425192    0.521973

  Hessian Eigenvectors:


     0.000054    0.237570    0.001869    0.531198   -0.522428    0.199363
    -0.240293    0.001761   -0.148168   -0.141079    0.277227    0.859930
    -0.000312   -0.147450   -0.000723   -0.092432   -0.334458    0.200502
    -0.000456    0.177112   -0.005208    0.476900    0.411247   -0.015746
     0.049415   -0.000346    0.719005   -0.043547    0.094529    0.283958
     0.000241   -0.641319   -0.002195    0.128088    0.057370   -0.043537
    -0.000001    0.012774    0.000586    0.599613    0.053675    0.107238
     0.001048   -0.062733   -0.000120   -0.089943    0.166695   -0.100175
     0.858635   -0.001516    0.248388   -0.021751    0.043205    0.133206
    -0.000746   -0.177530   -0.000134    0.207953    0.525706   -0.125152
     0.091057    0.653034   -0.124305   -0.179539    0.218995   -0.074700
     0.440761   -0.130711   -0.619591    0.008292    0.011846    0.193067


    -0.385005    0.058841    0.059392   -0.031470    0.431104    0.081549
    -0.125274    0.185535   -0.184244   -0.001146   -0.000083   -0.000005
     0.740408   -0.089124   -0.091647    0.197101    0.337638    0.316632
     0.285869    0.440261    0.433649    0.312819   -0.039020    0.093901
    -0.037368   -0.437135    0.443432    0.003132   -0.000665    0.000303
    -0.330440   -0.100586   -0.100350    0.654690    0.050123    0.081256
     0.178391   -0.404371   -0.405777   -0.113336   -0.489909    0.114323
    -0.219904    0.052037    0.053862   -0.271755   -0.008550    0.906786
    -0.019305    0.301162   -0.299816   -0.000978    0.000264   -0.000895
     0.068998   -0.188544   -0.188025   -0.323001    0.655358   -0.154021
    -0.101170   -0.370166   -0.201259    0.482631    0.159683    0.133546
    -0.003910   -0.360059    0.475467   -0.098569   -0.032228   -0.028033

 Minimum search - taking simple RFO step
 Searching for Lamda that Minimizes Along All modes
 Value Taken    Lamda =  -0.00001115
 Step Taken.  Stepsize is  0.009348


     Parameter Values and Displacements in Internal Coordinates
  Coordinate  Current Value    Gradient  Displacement   New Value
       1           2.998613     0.000767    -0.004428     2.994185
       2          -0.663041     0.000251    -0.002613    -0.665654
       3           1.618148    -0.000667     0.003989     1.622137
       4           3.277904    -0.000013     0.001285     3.279189
       5           1.255717     0.000237    -0.001545     1.254172
       6           0.765434    -0.000042     0.000419     0.765853
       7          -2.000976    -0.000897     0.003483    -1.997493
       8           0.918489    -0.000027    -0.000519     0.917970
       9           1.942346     0.000006     0.003640     1.945985
      10          -0.209037    -0.000354     0.002648    -0.206388
      11           0.551373    -0.000182    -0.000110     0.551263
      12          -0.307878    -0.000010     0.002854    -0.305024

                             Maximum     Tolerance    Cnvgd?
         Gradient           0.000897      0.020000     YES
         Displacement       0.004428      0.020000     YES
         Energy change     *********      0.000200      NO


                       Distance Matrix (Angstroms)
             C (  1)   H (  2)   H (  3)   H (  4)   O (  5)
   H (  2)  1.118921
   H (  3)  1.118942  1.805198
   H (  4)  1.108643  1.796284  1.793800
   O (  5)  1.419609  2.131375  2.132015  2.038110
   H (  6)  1.939488  2.371079  2.376715  2.839709  0.975860

 Final energy is   -115.57850044923106     


 ******************************
 **  OPTIMIZATION CONVERGED  **
 ******************************

                       Coordinates (Angstroms)
     ATOM                X               Y               Z
      1  C         0.3759514396   -1.9478120681    2.4394413932
      2  H         0.6360829524   -0.9745166052    1.9526037794
      3  H         0.0488386151   -1.7246337723    3.4859684215
      4  H        -0.4997753104   -2.3651930240    1.9027993523
      5  O         1.4078790783   -2.9193393597    2.3585046540
      6  H         2.1789015250   -2.5481046707    2.8275587996

Z-matrix Print:
$molecule
0 1
O 
H  1 0.975860
C  1 1.419609 2 106.653330
H  3 1.108643 1 106.794900 2 179.725997 0
H  3 1.118921 1 113.671530 2 61.363314 0
H  3 1.118942 1 113.723840 2 -62.149559 0
$end


 --------------------------------------------------------------

                    Orbital Energies (a.u.)
 --------------------------------------------------------------

 Alpha MOs
 -- Occupied --
-18.7537  -9.9336  -0.9202  -0.6043  -0.4451  -0.3745  -0.3646  -0.2775
 -0.2094
 -- Virtual --
  0.0331   0.0704   0.1103   0.1142   0.1619   0.4125   0.4283   0.4469
  0.5253   0.5841   0.5975   0.6029   0.8135   0.8426   0.9150   0.9580
  1.0072   1.1462   1.2819   1.3258   1.3474   1.5312   1.5486   1.5774
  1.5785   1.6668   1.7755   1.9145   1.9875   2.0140   2.0746   2.3000
  2.3044   2.3359   2.8356   2.9132   2.9633   3.0936   3.5621
 --------------------------------------------------------------

          Ground-State Mulliken Net Atomic Charges

     Atom                 Charge (a.u.)
  ----------------------------------------
      1 C                     0.034187
      2 H                     0.018153
      3 H                     0.017948
      4 H                     0.044061
      5 O                    -0.253181
      6 H                     0.138831
  ----------------------------------------
  Sum of atomic charges =     0.000000

 -----------------------------------------------------------------
                    Cartesian Multipole Moments
 -----------------------------------------------------------------
    Charge (ESU x 10^10)
                 0.0000
    Dipole Moment (Debye)
         X       0.2913      Y       1.2533      Z       0.7136
       Tot       1.4713
    Quadrupole Moments (Debye-Ang)
        XX     -10.3511     XY       0.8859     YY     -20.1899
        XZ       2.5996     YZ       1.2234     ZZ      -9.7523
    Octopole Moments (Debye-Ang^2)
       XXX     -21.9297    XXY      25.2687    XYY     -17.7805
       YYY     120.8312    XXZ     -21.2363    XYZ      -2.8704
       YYZ     -44.5835    XZZ       0.3111    YZZ      29.1770
       ZZZ     -83.1518
    Hexadecapole Moments (Debye-Ang^3)
      XXXX     -68.0222   XXXY      61.1908   XXYY     -85.6810
      XYYY     116.8893   YYYY    -570.6517   XXXZ     -44.2127
      XXYZ      51.1056   XYYZ     -30.0838   YYYZ     281.9956
      XXZZ     -60.8279   XYZZ       8.8584   YYZZ    -178.2819
      XZZZ     -38.8876   YZZZ     207.2698   ZZZZ    -441.9301
 -----------------------------------------------------------------
 Total job time:  1.35s(wall), 14.84s(cpu) 
 Mon Aug  9 17:57:06 2021

        *************************************************************
        *                                                           *
        *  Thank you very much for using Q-Chem.  Have a nice day.  *
        *                                                           *
        *************************************************************


